# vtk DataFile Version 3.0
vtk output
ASCII
DATASET UNSTRUCTURED_GRID
POINTS 302 float
0.000000e+00	0.000000e+00	0.0	5.000000e-01	0.000000e+00	0.0	1.500000e+00	3.639702e-01	0.0	1.500000e+00	9.342000e-01	0.0	0.000000e+00	9.342000e-01	0.0	1.000000e-02	9.342000e-01	0.0	2.000000e-02	9.342000e-01	0.0	3.000000e-02	9.342000e-01	0.0	4.000000e-02	9.342000e-01	0.0	5.000000e-02	9.342000e-01	0.0	6.000000e-02	9.342000e-01	0.0	7.000000e-02	9.342000e-01	0.0	8.000000e-02	9.342000e-01	0.0	9.000000e-02	9.342000e-01	0.0	1.000000e-01	9.342000e-01	0.0	1.100000e-01	9.342000e-01	0.0	1.200000e-01	9.342000e-01	0.0	1.300000e-01	9.342000e-01	0.0	1.400000e-01	9.342000e-01	0.0	1.500000e-01	9.342000e-01	0.0	1.600000e-01	9.342000e-01	0.0	1.700000e-01	9.342000e-01	0.0	1.800000e-01	9.342000e-01	0.0	1.900000e-01	9.342000e-01	0.0	2.000000e-01	9.342000e-01	0.0	2.100000e-01	9.342000e-01	0.0	2.200000e-01	9.342000e-01	0.0	2.300000e-01	9.342000e-01	0.0	2.400000e-01	9.342000e-01	0.0	2.500000e-01	9.342000e-01	0.0	2.600000e-01	9.342000e-01	0.0	2.700000e-01	9.342000e-01	0.0	2.800000e-01	9.342000e-01	0.0	2.900000e-01	9.342000e-01	0.0	3.000000e-01	9.342000e-01	0.0	3.100000e-01	9.342000e-01	0.0	3.200000e-01	9.342000e-01	0.0	3.300000e-01	9.342000e-01	0.0	3.400000e-01	9.342000e-01	0.0	3.500000e-01	9.342000e-01	0.0	3.600000e-01	9.342000e-01	0.0	3.700000e-01	9.342000e-01	0.0	3.800000e-01	9.342000e-01	0.0	3.900000e-01	9.342000e-01	0.0	4.000000e-01	9.342000e-01	0.0	4.100000e-01	9.342000e-01	0.0	4.200000e-01	9.342000e-01	0.0	4.300000e-01	9.342000e-01	0.0	4.400000e-01	9.342000e-01	0.0	4.500000e-01	9.342000e-01	0.0	4.600000e-01	9.342000e-01	0.0	4.700000e-01	9.342000e-01	0.0	4.800000e-01	9.342000e-01	0.0	4.900000e-01	9.342000e-01	0.0	5.000000e-01	9.342000e-01	0.0	5.100000e-01	9.342000e-01	0.0	5.200000e-01	9.342000e-01	0.0	5.300000e-01	9.342000e-01	0.0	5.400000e-01	9.342000e-01	0.0	5.500000e-01	9.342000e-01	0.0	5.600000e-01	9.342000e-01	0.0	5.700000e-01	9.342000e-01	0.0	5.800000e-01	9.342000e-01	0.0	5.900000e-01	9.342000e-01	0.0	6.000000e-01	9.342000e-01	0.0	6.100000e-01	9.342000e-01	0.0	6.200000e-01	9.342000e-01	0.0	6.300000e-01	9.342000e-01	0.0	6.400000e-01	9.342000e-01	0.0	6.500000e-01	9.342000e-01	0.0	6.600000e-01	9.342000e-01	0.0	6.700000e-01	9.342000e-01	0.0	6.800000e-01	9.342000e-01	0.0	6.900000e-01	9.342000e-01	0.0	7.000000e-01	9.342000e-01	0.0	7.100000e-01	9.342000e-01	0.0	7.200000e-01	9.342000e-01	0.0	7.300000e-01	9.342000e-01	0.0	7.400000e-01	9.342000e-01	0.0	7.500000e-01	9.342000e-01	0.0	7.600000e-01	9.342000e-01	0.0	7.700000e-01	9.342000e-01	0.0	7.800000e-01	9.342000e-01	0.0	7.900000e-01	9.342000e-01	0.0	8.000000e-01	9.342000e-01	0.0	8.100000e-01	9.342000e-01	0.0	8.200000e-01	9.342000e-01	0.0	8.300000e-01	9.342000e-01	0.0	8.400000e-01	9.342000e-01	0.0	8.500000e-01	9.342000e-01	0.0	8.600000e-01	9.342000e-01	0.0	8.700000e-01	9.342000e-01	0.0	8.800000e-01	9.342000e-01	0.0	8.900000e-01	9.342000e-01	0.0	9.000000e-01	9.342000e-01	0.0	9.100000e-01	9.342000e-01	0.0	9.200000e-01	9.342000e-01	0.0	9.300000e-01	9.342000e-01	0.0	9.400000e-01	9.342000e-01	0.0	9.500000e-01	9.342000e-01	0.0	9.600000e-01	9.342000e-01	0.0	9.700000e-01	9.342000e-01	0.0	9.800000e-01	9.342000e-01	0.0	9.900000e-01	9.342000e-01	0.0	1.000000e+00	9.342000e-01	0.0	1.010000e+00	9.342000e-01	0.0	1.020000e+00	9.342000e-01	0.0	1.030000e+00	9.342000e-01	0.0	1.040000e+00	9.342000e-01	0.0	1.050000e+00	9.342000e-01	0.0	1.060000e+00	9.342000e-01	0.0	1.070000e+00	9.342000e-01	0.0	1.080000e+00	9.342000e-01	0.0	1.090000e+00	9.342000e-01	0.0	1.100000e+00	9.342000e-01	0.0	1.110000e+00	9.342000e-01	0.0	1.120000e+00	9.342000e-01	0.0	1.130000e+00	9.342000e-01	0.0	1.140000e+00	9.342000e-01	0.0	1.150000e+00	9.342000e-01	0.0	1.160000e+00	9.342000e-01	0.0	1.170000e+00	9.342000e-01	0.0	1.180000e+00	9.342000e-01	0.0	1.190000e+00	9.342000e-01	0.0	1.200000e+00	9.342000e-01	0.0	1.210000e+00	9.342000e-01	0.0	1.220000e+00	9.342000e-01	0.0	1.230000e+00	9.342000e-01	0.0	1.240000e+00	9.342000e-01	0.0	1.250000e+00	9.342000e-01	0.0	1.260000e+00	9.342000e-01	0.0	1.270000e+00	9.342000e-01	0.0	1.280000e+00	9.342000e-01	0.0	1.290000e+00	9.342000e-01	0.0	1.300000e+00	9.342000e-01	0.0	1.310000e+00	9.342000e-01	0.0	1.320000e+00	9.342000e-01	0.0	1.330000e+00	9.342000e-01	0.0	1.340000e+00	9.342000e-01	0.0	1.350000e+00	9.342000e-01	0.0	1.360000e+00	9.342000e-01	0.0	1.370000e+00	9.342000e-01	0.0	1.380000e+00	9.342000e-01	0.0	1.390000e+00	9.342000e-01	0.0	1.400000e+00	9.342000e-01	0.0	1.410000e+00	9.342000e-01	0.0	1.420000e+00	9.342000e-01	0.0	1.430000e+00	9.342000e-01	0.0	1.440000e+00	9.342000e-01	0.0	1.450000e+00	9.342000e-01	0.0	1.460000e+00	9.342000e-01	0.0	1.470000e+00	9.342000e-01	0.0	1.480000e+00	9.342000e-01	0.0	1.490000e+00	9.342000e-01	0.0	1.490000e+00	3.603305e-01	0.0	1.480000e+00	3.566908e-01	0.0	1.470000e+00	3.530511e-01	0.0	1.460000e+00	3.494114e-01	0.0	1.450000e+00	3.457717e-01	0.0	1.440000e+00	3.421320e-01	0.0	1.430000e+00	3.384923e-01	0.0	1.420000e+00	3.348526e-01	0.0	1.410000e+00	3.312129e-01	0.0	1.400000e+00	3.275732e-01	0.0	1.390000e+00	3.239335e-01	0.0	1.380000e+00	3.202938e-01	0.0	1.370000e+00	3.166541e-01	0.0	1.360000e+00	3.130144e-01	0.0	1.350000e+00	3.093747e-01	0.0	1.340000e+00	3.057350e-01	0.0	1.330000e+00	3.020953e-01	0.0	1.320000e+00	2.984556e-01	0.0	1.310000e+00	2.948159e-01	0.0	1.300000e+00	2.911762e-01	0.0	1.290000e+00	2.875365e-01	0.0	1.280000e+00	2.838968e-01	0.0	1.270000e+00	2.802571e-01	0.0	1.260000e+00	2.766174e-01	0.0	1.250000e+00	2.729777e-01	0.0	1.240000e+00	2.693380e-01	0.0	1.230000e+00	2.656983e-01	0.0	1.220000e+00	2.620586e-01	0.0	1.210000e+00	2.584189e-01	0.0	1.200000e+00	2.547792e-01	0.0	1.190000e+00	2.511395e-01	0.0	1.180000e+00	2.474998e-01	0.0	1.170000e+00	2.438601e-01	0.0	1.160000e+00	2.402204e-01	0.0	1.150000e+00	2.365807e-01	0.0	1.140000e+00	2.329409e-01	0.0	1.130000e+00	2.293012e-01	0.0	1.120000e+00	2.256615e-01	0.0	1.110000e+00	2.220218e-01	0.0	1.100000e+00	2.183821e-01	0.0	1.090000e+00	2.147424e-01	0.0	1.080000e+00	2.111027e-01	0.0	1.070000e+00	2.074630e-01	0.0	1.060000e+00	2.038233e-01	0.0	1.050000e+00	2.001836e-01	0.0	1.040000e+00	1.965439e-01	0.0	1.030000e+00	1.929042e-01	0.0	1.020000e+00	1.892645e-01	0.0	1.010000e+00	1.856248e-01	0.0	1.000000e+00	1.819851e-01	0.0	9.900000e-01	1.783454e-01	0.0	9.800000e-01	1.747057e-01	0.0	9.700000e-01	1.710660e-01	0.0	9.600000e-01	1.674263e-01	0.0	9.500000e-01	1.637866e-01	0.0	9.400000e-01	1.601469e-01	0.0	9.300000e-01	1.565072e-01	0.0	9.200000e-01	1.528675e-01	0.0	9.100000e-01	1.492278e-01	0.0	9.000000e-01	1.455881e-01	0.0	8.900000e-01	1.419484e-01	0.0	8.800000e-01	1.383087e-01	0.0	8.700000e-01	1.346690e-01	0.0	8.600000e-01	1.310293e-01	0.0	8.500000e-01	1.273896e-01	0.0	8.400000e-01	1.237499e-01	0.0	8.300000e-01	1.201102e-01	0.0	8.200000e-01	1.164705e-01	0.0	8.100000e-01	1.128308e-01	0.0	8.000000e-01	1.091911e-01	0.0	7.900000e-01	1.055514e-01	0.0	7.800000e-01	1.019117e-01	0.0	7.700000e-01	9.827196e-02	0.0	7.600000e-01	9.463226e-02	0.0	7.500000e-01	9.099256e-02	0.0	7.400000e-01	8.735286e-02	0.0	7.300000e-01	8.371315e-02	0.0	7.200000e-01	8.007345e-02	0.0	7.100000e-01	7.643375e-02	0.0	7.000000e-01	7.279405e-02	0.0	6.900000e-01	6.915434e-02	0.0	6.800000e-01	6.551464e-02	0.0	6.700000e-01	6.187494e-02	0.0	6.600000e-01	5.823524e-02	0.0	6.500000e-01	5.459554e-02	0.0	6.400000e-01	5.095583e-02	0.0	6.300000e-01	4.731613e-02	0.0	6.200000e-01	4.367643e-02	0.0	6.100000e-01	4.003673e-02	0.0	6.000000e-01	3.639702e-02	0.0	5.900000e-01	3.275732e-02	0.0	5.800000e-01	2.911762e-02	0.0	5.700000e-01	2.547792e-02	0.0	5.600000e-01	2.183821e-02	0.0	5.500000e-01	1.819851e-02	0.0	5.400000e-01	1.455881e-02	0.0	5.300000e-01	1.091911e-02	0.0	5.200000e-01	7.279405e-03	0.0	5.100000e-01	3.639702e-03	0.0	4.900000e-01	0.000000e+00	0.0	4.800000e-01	0.000000e+00	0.0	4.700000e-01	0.000000e+00	0.0	4.600000e-01	0.000000e+00	0.0	4.500000e-01	0.000000e+00	0.0	4.400000e-01	0.000000e+00	0.0	4.300000e-01	0.000000e+00	0.0	4.200000e-01	0.000000e+00	0.0	4.100000e-01	0.000000e+00	0.0	4.000000e-01	0.000000e+00	0.0	3.900000e-01	0.000000e+00	0.0	3.800000e-01	0.000000e+00	0.0	3.700000e-01	0.000000e+00	0.0	3.600000e-01	0.000000e+00	0.0	3.500000e-01	0.000000e+00	0.0	3.400000e-01	0.000000e+00	0.0	3.300000e-01	0.000000e+00	0.0	3.200000e-01	0.000000e+00	0.0	3.100000e-01	0.000000e+00	0.0	3.000000e-01	0.000000e+00	0.0	2.900000e-01	0.000000e+00	0.0	2.800000e-01	0.000000e+00	0.0	2.700000e-01	0.000000e+00	0.0	2.600000e-01	0.000000e+00	0.0	2.500000e-01	0.000000e+00	0.0	2.400000e-01	0.000000e+00	0.0	2.300000e-01	0.000000e+00	0.0	2.200000e-01	0.000000e+00	0.0	2.100000e-01	0.000000e+00	0.0	2.000000e-01	0.000000e+00	0.0	1.900000e-01	0.000000e+00	0.0	1.800000e-01	0.000000e+00	0.0	1.700000e-01	0.000000e+00	0.0	1.600000e-01	0.000000e+00	0.0	1.500000e-01	0.000000e+00	0.0	1.400000e-01	0.000000e+00	0.0	1.300000e-01	0.000000e+00	0.0	1.200000e-01	0.000000e+00	0.0	1.100000e-01	0.000000e+00	0.0	1.000000e-01	0.000000e+00	0.0	9.000000e-02	0.000000e+00	0.0	8.000000e-02	0.000000e+00	0.0	7.000000e-02	0.000000e+00	0.0	6.000000e-02	0.000000e+00	0.0	5.000000e-02	0.000000e+00	0.0	4.000000e-02	0.000000e+00	0.0	3.000000e-02	0.000000e+00	0.0	2.000000e-02	0.000000e+00	0.0	1.000000e-02	0.000000e+00	0.0	
CELLS 300	900
2	5	4	2	6	5	2	7	6	2	8	7	2	9	8	2	10	9	2	11	10	2	12	11	2	13	12	2	14	13	2	15	14	2	16	15	2	17	16	2	18	17	2	19	18	2	20	19	2	21	20	2	22	21	2	23	22	2	24	23	2	25	24	2	26	25	2	27	26	2	28	27	2	29	28	2	30	29	2	31	30	2	32	31	2	33	32	2	34	33	2	35	34	2	36	35	2	37	36	2	38	37	2	39	38	2	40	39	2	41	40	2	42	41	2	43	42	2	44	43	2	45	44	2	46	45	2	47	46	2	48	47	2	49	48	2	50	49	2	51	50	2	52	51	2	53	52	2	54	53	2	55	54	2	56	55	2	57	56	2	58	57	2	59	58	2	60	59	2	61	60	2	62	61	2	63	62	2	64	63	2	65	64	2	66	65	2	67	66	2	68	67	2	69	68	2	70	69	2	71	70	2	72	71	2	73	72	2	74	73	2	75	74	2	76	75	2	77	76	2	78	77	2	79	78	2	80	79	2	81	80	2	82	81	2	83	82	2	84	83	2	85	84	2	86	85	2	87	86	2	88	87	2	89	88	2	90	89	2	91	90	2	92	91	2	93	92	2	94	93	2	95	94	2	96	95	2	97	96	2	98	97	2	99	98	2	100	99	2	101	100	2	102	101	2	103	102	2	104	103	2	105	104	2	106	105	2	107	106	2	108	107	2	109	108	2	110	109	2	111	110	2	112	111	2	113	112	2	114	113	2	115	114	2	116	115	2	117	116	2	118	117	2	119	118	2	120	119	2	121	120	2	122	121	2	123	122	2	124	123	2	125	124	2	126	125	2	127	126	2	128	127	2	129	128	2	130	129	2	131	130	2	132	131	2	133	132	2	134	133	2	135	134	2	136	135	2	137	136	2	138	137	2	139	138	2	140	139	2	141	140	2	142	141	2	143	142	2	144	143	2	145	144	2	146	145	2	147	146	2	148	147	2	149	148	2	150	149	2	151	150	2	152	151	2	153	152	2	3	153	2	154	2	2	155	154	2	156	155	2	157	156	2	158	157	2	159	158	2	160	159	2	161	160	2	162	161	2	163	162	2	164	163	2	165	164	2	166	165	2	167	166	2	168	167	2	169	168	2	170	169	2	171	170	2	172	171	2	173	172	2	174	173	2	175	174	2	176	175	2	177	176	2	178	177	2	179	178	2	180	179	2	181	180	2	182	181	2	183	182	2	184	183	2	185	184	2	186	185	2	187	186	2	188	187	2	189	188	2	190	189	2	191	190	2	192	191	2	193	192	2	194	193	2	195	194	2	196	195	2	197	196	2	198	197	2	199	198	2	200	199	2	201	200	2	202	201	2	203	202	2	204	203	2	205	204	2	206	205	2	207	206	2	208	207	2	209	208	2	210	209	2	211	210	2	212	211	2	213	212	2	214	213	2	215	214	2	216	215	2	217	216	2	218	217	2	219	218	2	220	219	2	221	220	2	222	221	2	223	222	2	224	223	2	225	224	2	226	225	2	227	226	2	228	227	2	229	228	2	230	229	2	231	230	2	232	231	2	233	232	2	234	233	2	235	234	2	236	235	2	237	236	2	238	237	2	239	238	2	240	239	2	241	240	2	242	241	2	243	242	2	244	243	2	245	244	2	246	245	2	247	246	2	248	247	2	249	248	2	250	249	2	251	250	2	252	251	2	1	252	2	253	1	2	254	253	2	255	254	2	256	255	2	257	256	2	258	257	2	259	258	2	260	259	2	261	260	2	262	261	2	263	262	2	264	263	2	265	264	2	266	265	2	267	266	2	268	267	2	269	268	2	270	269	2	271	270	2	272	271	2	273	272	2	274	273	2	275	274	2	276	275	2	277	276	2	278	277	2	279	278	2	280	279	2	281	280	2	282	281	2	283	282	2	284	283	2	285	284	2	286	285	2	287	286	2	288	287	2	289	288	2	290	289	2	291	290	2	292	291	2	293	292	2	294	293	2	295	294	2	296	295	2	297	296	2	298	297	2	299	298	2	300	299	2	301	300	2	0	301	
CELL_TYPES 300
3	3	3	3	3	3	3	3	3	3	3	3	3	3	3	3	3	3	3	3	3	3	3	3	3	3	3	3	3	3	3	3	3	3	3	3	3	3	3	3	3	3	3	3	3	3	3	3	3	3	3	3	3	3	3	3	3	3	3	3	3	3	3	3	3	3	3	3	3	3	3	3	3	3	3	3	3	3	3	3	3	3	3	3	3	3	3	3	3	3	3	3	3	3	3	3	3	3	3	3	3	3	3	3	3	3	3	3	3	3	3	3	3	3	3	3	3	3	3	3	3	3	3	3	3	3	3	3	3	3	3	3	3	3	3	3	3	3	3	3	3	3	3	3	3	3	3	3	3	3	3	3	3	3	3	3	3	3	3	3	3	3	3	3	3	3	3	3	3	3	3	3	3	3	3	3	3	3	3	3	3	3	3	3	3	3	3	3	3	3	3	3	3	3	3	3	3	3	3	3	3	3	3	3	3	3	3	3	3	3	3	3	3	3	3	3	3	3	3	3	3	3	3	3	3	3	3	3	3	3	3	3	3	3	3	3	3	3	3	3	3	3	3	3	3	3	3	3	3	3	3	3	3	3	3	3	3	3	3	3	3	3	3	3	3	3	3	3	3	3	3	3	3	3	3	3	3	3	3	3	3	3	3	3	3	3	3	3	3	3	3	3	3	3	3	3	3	3	3	3	
POINT_DATA 302

SCALARS Conservative_1 float 1
LOOKUP_TABLE default
1.176829e+00	1.728853e+00	2.722603e+00	1.176829e+00	1.176829e+00	1.176829e+00	1.176829e+00	1.176829e+00	1.176829e+00	1.176829e+00	1.176829e+00	1.176829e+00	1.176829e+00	1.176829e+00	1.176829e+00	1.176829e+00	1.176829e+00	1.176829e+00	1.176829e+00	1.176829e+00	1.176829e+00	1.176829e+00	1.176829e+00	1.176829e+00	1.176829e+00	1.176829e+00	1.176829e+00	1.176829e+00	1.176829e+00	1.176829e+00	1.176829e+00	1.176829e+00	1.176829e+00	1.176829e+00	1.176829e+00	1.176829e+00	1.176829e+00	1.176829e+00	1.176829e+00	1.176829e+00	1.176829e+00	1.176829e+00	1.176829e+00	1.176829e+00	1.176829e+00	1.176829e+00	1.176829e+00	1.176829e+00	1.176829e+00	1.176829e+00	1.176829e+00	1.176829e+00	1.176829e+00	1.176829e+00	1.176829e+00	1.176829e+00	1.176829e+00	1.176829e+00	1.176829e+00	1.176829e+00	1.176829e+00	1.176829e+00	1.176829e+00	1.176829e+00	1.176829e+00	1.176829e+00	1.176829e+00	1.176829e+00	1.176829e+00	1.176829e+00	1.176829e+00	1.176829e+00	1.176829e+00	1.176829e+00	1.176829e+00	1.176829e+00	1.176829e+00	1.176829e+00	1.176829e+00	1.176829e+00	1.176829e+00	1.176829e+00	1.176829e+00	1.176829e+00	1.176829e+00	1.176829e+00	1.176829e+00	1.176829e+00	1.176829e+00	1.176829e+00	1.176829e+00	1.176829e+00	1.176829e+00	1.176829e+00	1.176829e+00	1.176829e+00	1.176829e+00	1.176829e+00	1.176829e+00	1.176829e+00	1.176829e+00	1.176829e+00	1.176829e+00	1.176829e+00	1.176829e+00	1.176829e+00	1.176829e+00	1.176829e+00	1.176829e+00	1.176829e+00	1.176829e+00	1.176829e+00	1.176829e+00	1.176829e+00	1.176829e+00	1.176829e+00	1.176829e+00	1.176829e+00	1.176829e+00	1.176829e+00	1.176829e+00	1.176829e+00	1.176829e+00	1.176829e+00	1.176829e+00	1.176829e+00	1.176829e+00	1.176829e+00	1.176829e+00	1.176829e+00	1.176829e+00	1.176829e+00	1.176829e+00	1.176829e+00	1.176829e+00	1.176829e+00	1.176829e+00	1.176829e+00	1.176829e+00	1.176829e+00	1.176829e+00	1.176829e+00	1.176829e+00	1.176829e+00	1.176829e+00	1.176829e+00	1.176829e+00	1.176829e+00	1.176829e+00	1.176829e+00	1.176829e+00	1.176829e+00	1.176829e+00	1.176829e+00	2.722605e+00	2.722609e+00	2.722613e+00	2.722617e+00	2.722621e+00	2.722625e+00	2.722629e+00	2.722633e+00	2.722637e+00	2.722642e+00	2.722646e+00	2.722651e+00	2.722655e+00	2.722659e+00	2.722664e+00	2.722668e+00	2.722673e+00	2.722677e+00	2.722681e+00	2.722686e+00	2.722690e+00	2.722695e+00	2.722699e+00	2.722703e+00	2.722708e+00	2.722712e+00	2.722716e+00	2.722721e+00	2.722725e+00	2.722729e+00	2.722733e+00	2.722737e+00	2.722741e+00	2.722745e+00	2.722749e+00	2.722753e+00	2.722757e+00	2.722761e+00	2.722765e+00	2.722769e+00	2.722772e+00	2.722776e+00	2.722779e+00	2.722783e+00	2.722786e+00	2.722789e+00	2.722792e+00	2.722795e+00	2.722797e+00	2.722800e+00	2.722802e+00	2.722804e+00	2.722806e+00	2.722807e+00	2.722809e+00	2.722810e+00	2.722811e+00	2.722811e+00	2.722811e+00	2.722809e+00	2.722808e+00	2.722805e+00	2.722801e+00	2.722796e+00	2.722790e+00	2.722783e+00	2.722775e+00	2.722766e+00	2.722755e+00	2.722742e+00	2.722727e+00	2.722709e+00	2.722688e+00	2.722663e+00	2.722633e+00	2.722598e+00	2.722557e+00	2.722509e+00	2.722454e+00	2.722390e+00	2.722315e+00	2.722229e+00	2.722129e+00	2.722015e+00	2.721884e+00	2.721735e+00	2.721566e+00	2.721376e+00	2.721165e+00	2.720934e+00	2.720706e+00	2.720585e+00	2.720967e+00	2.723085e+00	2.730132e+00	2.748400e+00	2.783432e+00	2.808227e+00	2.635703e+00	1.176829e+00	1.176829e+00	1.176829e+00	1.176829e+00	1.176829e+00	1.176829e+00	1.176829e+00	1.176829e+00	1.176829e+00	1.176829e+00	1.176829e+00	1.176829e+00	1.176829e+00	1.176829e+00	1.176829e+00	1.176829e+00	1.176829e+00	1.176829e+00	1.176829e+00	1.176829e+00	1.176829e+00	1.176829e+00	1.176829e+00	1.176829e+00	1.176829e+00	1.176829e+00	1.176829e+00	1.176829e+00	1.176829e+00	1.176829e+00	1.176829e+00	1.176829e+00	1.176829e+00	1.176829e+00	1.176829e+00	1.176829e+00	1.176829e+00	1.176829e+00	1.176829e+00	1.176829e+00	1.176829e+00	1.176829e+00	1.176829e+00	1.176829e+00	1.176829e+00	1.176829e+00	1.176829e+00	1.176829e+00	1.176829e+00	
SCALARS Conservative_2 float 1
LOOKUP_TABLE default
1.225746e+03	1.681714e+03	2.182218e+03	1.225746e+03	1.225746e+03	1.225746e+03	1.225746e+03	1.225746e+03	1.225746e+03	1.225746e+03	1.225746e+03	1.225746e+03	1.225746e+03	1.225746e+03	1.225746e+03	1.225746e+03	1.225746e+03	1.225746e+03	1.225746e+03	1.225746e+03	1.225746e+03	1.225746e+03	1.225746e+03	1.225746e+03	1.225746e+03	1.225746e+03	1.225746e+03	1.225746e+03	1.225746e+03	1.225746e+03	1.225746e+03	1.225746e+03	1.225746e+03	1.225746e+03	1.225746e+03	1.225746e+03	1.225746e+03	1.225746e+03	1.225746e+03	1.225746e+03	1.225746e+03	1.225746e+03	1.225746e+03	1.225746e+03	1.225746e+03	1.225746e+03	1.225746e+03	1.225746e+03	1.225746e+03	1.225746e+03	1.225746e+03	1.225746e+03	1.225746e+03	1.225746e+03	1.225746e+03	1.225746e+03	1.225746e+03	1.225746e+03	1.225746e+03	1.225746e+03	1.225746e+03	1.225746e+03	1.225746e+03	1.225746e+03	1.225746e+03	1.225746e+03	1.225746e+03	1.225746e+03	1.225746e+03	1.225746e+03	1.225746e+03	1.225746e+03	1.225746e+03	1.225746e+03	1.225746e+03	1.225746e+03	1.225746e+03	1.225746e+03	1.225746e+03	1.225746e+03	1.225746e+03	1.225746e+03	1.225746e+03	1.225746e+03	1.225746e+03	1.225746e+03	1.225746e+03	1.225746e+03	1.225746e+03	1.225746e+03	1.225746e+03	1.225746e+03	1.225746e+03	1.225746e+03	1.225746e+03	1.225746e+03	1.225746e+03	1.225746e+03	1.225746e+03	1.225746e+03	1.225746e+03	1.225746e+03	1.225746e+03	1.225746e+03	1.225746e+03	1.225746e+03	1.225746e+03	1.225746e+03	1.225746e+03	1.225746e+03	1.225746e+03	1.225746e+03	1.225746e+03	1.225746e+03	1.225746e+03	1.225746e+03	1.225746e+03	1.225746e+03	1.225746e+03	1.225746e+03	1.225746e+03	1.225746e+03	1.225746e+03	1.225746e+03	1.225746e+03	1.225746e+03	1.225746e+03	1.225746e+03	1.225746e+03	1.225746e+03	1.225746e+03	1.225746e+03	1.225746e+03	1.225746e+03	1.225746e+03	1.225746e+03	1.225746e+03	1.225746e+03	1.225746e+03	1.225746e+03	1.225746e+03	1.225746e+03	1.225746e+03	1.225746e+03	1.225746e+03	1.225746e+03	1.225746e+03	1.225746e+03	1.225746e+03	1.225746e+03	1.225746e+03	1.225746e+03	1.225746e+03	1.225746e+03	2.182219e+03	2.182219e+03	2.182221e+03	2.182222e+03	2.182224e+03	2.182226e+03	2.182228e+03	2.182230e+03	2.182232e+03	2.182234e+03	2.182236e+03	2.182239e+03	2.182241e+03	2.182244e+03	2.182246e+03	2.182249e+03	2.182251e+03	2.182254e+03	2.182256e+03	2.182259e+03	2.182261e+03	2.182264e+03	2.182266e+03	2.182269e+03	2.182272e+03	2.182274e+03	2.182277e+03	2.182279e+03	2.182282e+03	2.182284e+03	2.182286e+03	2.182289e+03	2.182291e+03	2.182294e+03	2.182296e+03	2.182298e+03	2.182301e+03	2.182303e+03	2.182305e+03	2.182307e+03	2.182309e+03	2.182311e+03	2.182313e+03	2.182315e+03	2.182317e+03	2.182319e+03	2.182321e+03	2.182322e+03	2.182324e+03	2.182325e+03	2.182327e+03	2.182328e+03	2.182329e+03	2.182330e+03	2.182331e+03	2.182331e+03	2.182332e+03	2.182332e+03	2.182332e+03	2.182331e+03	2.182330e+03	2.182329e+03	2.182326e+03	2.182323e+03	2.182320e+03	2.182316e+03	2.182311e+03	2.182306e+03	2.182300e+03	2.182292e+03	2.182283e+03	2.182273e+03	2.182261e+03	2.182246e+03	2.182229e+03	2.182209e+03	2.182185e+03	2.182157e+03	2.182125e+03	2.182088e+03	2.182045e+03	2.181995e+03	2.181937e+03	2.181871e+03	2.181795e+03	2.181708e+03	2.181610e+03	2.181499e+03	2.181375e+03	2.181238e+03	2.181095e+03	2.180994e+03	2.181141e+03	2.182236e+03	2.186253e+03	2.197613e+03	2.222621e+03	2.255744e+03	2.208542e+03	1.225746e+03	1.225746e+03	1.225746e+03	1.225746e+03	1.225746e+03	1.225746e+03	1.225746e+03	1.225746e+03	1.225746e+03	1.225746e+03	1.225746e+03	1.225746e+03	1.225746e+03	1.225746e+03	1.225746e+03	1.225746e+03	1.225746e+03	1.225746e+03	1.225746e+03	1.225746e+03	1.225746e+03	1.225746e+03	1.225746e+03	1.225746e+03	1.225746e+03	1.225746e+03	1.225746e+03	1.225746e+03	1.225746e+03	1.225746e+03	1.225746e+03	1.225746e+03	1.225746e+03	1.225746e+03	1.225746e+03	1.225746e+03	1.225746e+03	1.225746e+03	1.225746e+03	1.225746e+03	1.225746e+03	1.225746e+03	1.225746e+03	1.225746e+03	1.225746e+03	1.225746e+03	1.225746e+03	1.225746e+03	1.225746e+03	
SCALARS Conservative_3 float 1
LOOKUP_TABLE default
2.560702e-14	1.426338e+02	7.942625e+02	2.390673e-11	-5.468002e-15	-1.618680e-13	1.378679e-14	1.147312e-14	1.138584e-14	-2.331864e-13	-3.210403e-13	-3.324448e-13	-2.903871e-13	1.268835e-13	3.697674e-13	3.076902e-13	1.489465e-13	2.567916e-13	3.209973e-13	1.445767e-13	-6.462236e-15	-6.297976e-14	-1.490932e-13	-7.581193e-14	9.179324e-14	-3.528531e-14	3.227590e-14	2.248787e-14	7.357586e-14	-2.662284e-13	-3.605695e-13	-2.965585e-13	-2.289864e-13	-4.430040e-13	-4.208165e-13	-3.437282e-13	-4.118886e-13	-8.191102e-15	1.676545e-14	-2.526660e-14	5.326844e-14	8.265691e-14	2.018478e-13	5.173004e-14	-9.445795e-14	4.260092e-15	3.897776e-14	2.266425e-13	2.615665e-13	8.546007e-14	1.881527e-13	-1.419728e-13	-8.718656e-14	-4.791979e-14	-2.052298e-13	-9.709203e-14	-1.960265e-14	2.439482e-13	1.022312e-13	1.592970e-13	1.524699e-13	-3.953027e-14	-9.979117e-14	-4.353396e-15	1.068231e-13	6.793426e-14	-3.415979e-14	-5.139763e-14	1.021125e-13	2.233024e-13	1.683841e-13	3.057095e-13	2.802835e-13	1.343068e-13	3.240924e-13	9.963592e-14	-2.214482e-14	2.143527e-13	1.986592e-13	6.944170e-14	2.284483e-14	1.861173e-13	-3.338511e-15	-5.730068e-14	1.229190e-13	-1.048210e-13	-8.528484e-14	2.040638e-14	1.175407e-14	-3.138606e-14	1.532390e-14	-1.937672e-14	-1.231262e-14	2.088453e-13	2.298090e-13	-9.513260e-15	-1.693162e-13	-4.172247e-13	-2.311169e-13	-1.577080e-13	-2.682531e-13	-1.838360e-13	-1.336470e-13	-8.324629e-14	-1.773247e-14	-1.078717e-14	1.366595e-13	7.025464e-14	2.700600e-13	3.797158e-13	1.330027e-13	2.772247e-15	1.711615e-13	1.692702e-13	2.125189e-13	-1.509202e-14	7.951725e-14	1.935128e-13	2.802846e-13	1.547792e-13	1.243986e-13	4.693510e-13	4.475802e-13	3.748974e-13	5.582963e-13	4.316115e-13	4.568009e-13	6.825364e-13	6.261522e-13	6.525048e-13	7.252218e-13	4.977018e-13	4.155360e-13	2.261020e-13	3.122313e-13	2.321378e-13	2.613001e-13	3.507379e-14	2.200676e-13	-1.238195e-13	-1.278931e-13	-7.501552e-14	8.446665e-14	1.200121e-13	1.547985e-13	6.898131e-14	-1.516195e-14	2.274339e-13	7.337906e-14	-2.389140e-13	-1.831267e-13	2.849730e-13	2.321803e-12	1.374872e-11	7.942628e+02	7.942631e+02	7.942637e+02	7.942641e+02	7.942648e+02	7.942654e+02	7.942662e+02	7.942669e+02	7.942677e+02	7.942685e+02	7.942694e+02	7.942703e+02	7.942712e+02	7.942721e+02	7.942730e+02	7.942739e+02	7.942748e+02	7.942757e+02	7.942766e+02	7.942776e+02	7.942785e+02	7.942794e+02	7.942803e+02	7.942813e+02	7.942822e+02	7.942831e+02	7.942840e+02	7.942849e+02	7.942858e+02	7.942867e+02	7.942876e+02	7.942885e+02	7.942893e+02	7.942902e+02	7.942911e+02	7.942919e+02	7.942927e+02	7.942935e+02	7.942943e+02	7.942951e+02	7.942959e+02	7.942967e+02	7.942974e+02	7.942981e+02	7.942988e+02	7.942994e+02	7.943000e+02	7.943006e+02	7.943011e+02	7.943016e+02	7.943021e+02	7.943025e+02	7.943029e+02	7.943032e+02	7.943035e+02	7.943037e+02	7.943038e+02	7.943038e+02	7.943037e+02	7.943034e+02	7.943030e+02	7.943023e+02	7.943014e+02	7.943002e+02	7.942989e+02	7.942973e+02	7.942955e+02	7.942933e+02	7.942909e+02	7.942879e+02	7.942845e+02	7.942804e+02	7.942756e+02	7.942698e+02	7.942631e+02	7.942551e+02	7.942458e+02	7.942349e+02	7.942223e+02	7.942077e+02	7.941908e+02	7.941713e+02	7.941488e+02	7.941229e+02	7.940934e+02	7.940599e+02	7.940222e+02	7.939804e+02	7.939355e+02	7.938929e+02	7.938712e+02	7.939288e+02	7.942203e+02	7.950681e+02	7.968546e+02	7.988170e+02	7.935482e+02	7.484172e+02	5.671422e+02	1.863106e-13	8.337261e-14	7.311695e-14	1.443375e-13	5.585938e-16	-5.342286e-14	3.313311e-13	1.828125e-13	2.023522e-13	2.733506e-13	5.633338e-14	1.435877e-13	1.011713e-13	1.215784e-13	-3.731310e-14	-9.862580e-15	-6.688308e-14	-6.316678e-14	3.172141e-13	2.426989e-13	1.738187e-13	2.751553e-13	4.471315e-13	3.521992e-13	8.556570e-14	1.720725e-13	-1.892298e-15	-3.247123e-14	7.962762e-14	-2.000781e-14	6.996967e-14	2.274758e-13	2.385136e-14	-2.153981e-13	-3.390246e-14	-4.019182e-14	2.581700e-14	-5.709635e-14	2.748033e-14	1.112439e-13	-1.865536e-13	-2.325322e-13	-4.205127e-13	-2.534695e-13	-1.513851e-13	-2.337479e-13	-3.197183e-13	-3.197910e-13	-1.547550e-13	
SCALARS Conservative_4 float 1
LOOKUP_TABLE default
8.916600e+05	1.282913e+06	1.945368e+06	8.916600e+05	8.916600e+05	8.916600e+05	8.916600e+05	8.916600e+05	8.916600e+05	8.916600e+05	8.916600e+05	8.916600e+05	8.916600e+05	8.916600e+05	8.916600e+05	8.916600e+05	8.916600e+05	8.916600e+05	8.916600e+05	8.916600e+05	8.916600e+05	8.916600e+05	8.916600e+05	8.916600e+05	8.916600e+05	8.916600e+05	8.916600e+05	8.916600e+05	8.916600e+05	8.916600e+05	8.916600e+05	8.916600e+05	8.916600e+05	8.916600e+05	8.916600e+05	8.916600e+05	8.916600e+05	8.916600e+05	8.916600e+05	8.916600e+05	8.916600e+05	8.916600e+05	8.916600e+05	8.916600e+05	8.916600e+05	8.916600e+05	8.916600e+05	8.916600e+05	8.916600e+05	8.916600e+05	8.916600e+05	8.916600e+05	8.916600e+05	8.916600e+05	8.916600e+05	8.916600e+05	8.916600e+05	8.916600e+05	8.916600e+05	8.916600e+05	8.916600e+05	8.916600e+05	8.916600e+05	8.916600e+05	8.916600e+05	8.916600e+05	8.916600e+05	8.916600e+05	8.916600e+05	8.916600e+05	8.916600e+05	8.916600e+05	8.916600e+05	8.916600e+05	8.916600e+05	8.916600e+05	8.916600e+05	8.916600e+05	8.916600e+05	8.916600e+05	8.916600e+05	8.916600e+05	8.916600e+05	8.916600e+05	8.916600e+05	8.916600e+05	8.916600e+05	8.916600e+05	8.916600e+05	8.916600e+05	8.916600e+05	8.916600e+05	8.916600e+05	8.916600e+05	8.916600e+05	8.916600e+05	8.916600e+05	8.916600e+05	8.916600e+05	8.916600e+05	8.916600e+05	8.916600e+05	8.916600e+05	8.916600e+05	8.916600e+05	8.916600e+05	8.916600e+05	8.916600e+05	8.916600e+05	8.916600e+05	8.916600e+05	8.916600e+05	8.916600e+05	8.916600e+05	8.916600e+05	8.916600e+05	8.916600e+05	8.916600e+05	8.916600e+05	8.916600e+05	8.916600e+05	8.916600e+05	8.916600e+05	8.916600e+05	8.916600e+05	8.916600e+05	8.916600e+05	8.916600e+05	8.916600e+05	8.916600e+05	8.916600e+05	8.916600e+05	8.916600e+05	8.916600e+05	8.916600e+05	8.916600e+05	8.916600e+05	8.916600e+05	8.916600e+05	8.916600e+05	8.916600e+05	8.916600e+05	8.916600e+05	8.916600e+05	8.916600e+05	8.916600e+05	8.916600e+05	8.916600e+05	8.916600e+05	8.916600e+05	8.916600e+05	8.916600e+05	8.916600e+05	8.916600e+05	1.945369e+06	1.945370e+06	1.945373e+06	1.945375e+06	1.945377e+06	1.945380e+06	1.945382e+06	1.945385e+06	1.945387e+06	1.945390e+06	1.945393e+06	1.945396e+06	1.945399e+06	1.945401e+06	1.945404e+06	1.945407e+06	1.945410e+06	1.945413e+06	1.945416e+06	1.945419e+06	1.945421e+06	1.945424e+06	1.945427e+06	1.945430e+06	1.945433e+06	1.945436e+06	1.945439e+06	1.945441e+06	1.945444e+06	1.945447e+06	1.945450e+06	1.945452e+06	1.945455e+06	1.945458e+06	1.945460e+06	1.945463e+06	1.945465e+06	1.945468e+06	1.945471e+06	1.945473e+06	1.945475e+06	1.945478e+06	1.945480e+06	1.945482e+06	1.945484e+06	1.945486e+06	1.945488e+06	1.945490e+06	1.945492e+06	1.945493e+06	1.945495e+06	1.945496e+06	1.945497e+06	1.945498e+06	1.945499e+06	1.945500e+06	1.945501e+06	1.945501e+06	1.945501e+06	1.945500e+06	1.945499e+06	1.945497e+06	1.945494e+06	1.945491e+06	1.945487e+06	1.945483e+06	1.945477e+06	1.945471e+06	1.945464e+06	1.945455e+06	1.945446e+06	1.945434e+06	1.945420e+06	1.945403e+06	1.945384e+06	1.945361e+06	1.945334e+06	1.945302e+06	1.945266e+06	1.945224e+06	1.945174e+06	1.945118e+06	1.945052e+06	1.944977e+06	1.944891e+06	1.944792e+06	1.944681e+06	1.944556e+06	1.944417e+06	1.944265e+06	1.944115e+06	1.944036e+06	1.944287e+06	1.945682e+06	1.950321e+06	1.962339e+06	1.985364e+06	2.001853e+06	1.890586e+06	8.916600e+05	8.916600e+05	8.916600e+05	8.916600e+05	8.916600e+05	8.916600e+05	8.916600e+05	8.916600e+05	8.916600e+05	8.916600e+05	8.916600e+05	8.916600e+05	8.916600e+05	8.916600e+05	8.916600e+05	8.916600e+05	8.916600e+05	8.916600e+05	8.916600e+05	8.916600e+05	8.916600e+05	8.916600e+05	8.916600e+05	8.916600e+05	8.916600e+05	8.916600e+05	8.916600e+05	8.916600e+05	8.916600e+05	8.916600e+05	8.916600e+05	8.916600e+05	8.916600e+05	8.916600e+05	8.916600e+05	8.916600e+05	8.916600e+05	8.916600e+05	8.916600e+05	8.916600e+05	8.916600e+05	8.916600e+05	8.916600e+05	8.916600e+05	8.916600e+05	8.916600e+05	8.916600e+05	8.916600e+05	8.916600e+05	
SCALARS Pressure float 1
LOOKUP_TABLE default